           72
Energy of minimum      1=     -343.2734437199 first found at step      187
HH31       -0.0447359942        6.3106447545        2.8437449116
CH3         0.4602439165        5.3464975737        2.8890327884
HH32        1.5379563575        5.4999047701        2.9293199227
HH33        0.1369520095        4.8065907265        3.7781774926
C           0.1175935396        4.5343539646        1.6603418445
O          -0.6263961841        5.0062628061        0.7992219233
N           0.6683127451        3.3199332484        1.5753298544
H           1.2579590370        3.0348984610        2.3476235509
CA          0.4557746086        2.3377166808        0.4896581811
HA         -0.4858939585        2.5586344774       -0.0163525842
CB          1.6138633546        2.4110878076       -0.5315412226
HB2         2.5535692829        2.2323313328       -0.0056404745
HB3         1.4943759152        1.6105621145       -1.2639423453
CG          1.7382381988        3.7390164950       -1.2999910185
HG2         1.8710599826        4.5615831844       -0.5974899552
HG3         2.6319944344        3.6875925421       -1.9232595596
CD          0.5313818952        4.0209188392       -2.2074300730
HD2        -0.3816236939        4.0746752685       -1.6144907710
HD3         0.4216032832        3.1909251359       -2.9081679496
NE          0.7086239910        5.2705192836       -2.9742056625
HE          1.1171129755        5.1834020810       -3.8935369428
CZ          0.3772259181        6.4963920613       -2.6022328805
NH1        -0.1577005059        6.7635468070       -1.4426271527
HH11       -0.3981509835        7.7104530729       -1.1973490597
HH12       -0.3242895120        6.0140646365       -0.7794939327
NH2         0.5834496764        7.5004003624       -3.4073954932
HH21        0.3328174777        8.4365060204       -3.1285174597
HH22        0.9947899939        7.3445833040       -4.3158569894
C           0.3236168203        0.9080413521        1.0379804222
O           0.8148447817        0.6035978103        2.1307122067
N          -0.3228528873        0.0256955412        0.2665759808
H          -0.6685160180        0.3604062084       -0.6221757267
CA         -0.5082975180       -1.4054231989        0.5882613341
HA         -0.8011976944       -1.4907368175        1.6374821164
CB         -1.6398379488       -2.0010205458       -0.2716388057
HB2        -1.4060584358       -1.8591908162       -1.3286422340
HB3        -1.7025522280       -3.0736640959       -0.0786613584
CG         -3.0083246614       -1.3730834584        0.0404715571
HG2        -2.9836136246       -0.3062037252       -0.1856094059
HG3        -3.2282194450       -1.5033755405        1.1013081783
CD         -4.1189258902       -2.0319951720       -0.7884704964
HD2        -3.9027778685       -1.9012106313       -1.8505164916
HD3        -4.1558920103       -3.0989254674       -0.5602941608
CE         -5.4729193639       -1.3916837350       -0.4589129820
HE2        -5.6679634887       -1.5102904475        0.6109367191
HE3        -5.4184386962       -0.3205847790       -0.6744203647
NZ         -6.5754224681       -2.0082811724       -1.2434254617
HZ1        -6.6580721728       -2.9976998422       -1.0493622879
HZ2        -6.4273761249       -1.8980661219       -2.2380883391
HZ3        -7.4644266050       -1.5798560997       -1.0195018217
C           0.7899442031       -2.2124762964        0.4265656336
O           1.6802855858       -1.8360553618       -0.3425212324
N           0.8840306544       -3.3380141289        1.1371275589
H           0.1001423513       -3.5878321822        1.7223464485
CA          2.0151395890       -4.2734478494        1.0638142185
HA          2.9430691870       -3.6967117662        1.0620824038
CB          2.0064290404       -5.1747605127        2.3151307033
HB2         1.0887658508       -5.7641206359        2.3312149324
HB3         2.8470193865       -5.8674453951        2.2641321983
CG          2.1142565635       -4.4018338042        3.6213340709
OD1         1.1818446734       -4.3405761278        4.4133674265
ND2         3.2352329948       -3.7642070203        3.8836163054
HD21        4.0170891500       -3.8167317187        3.2457888780
HD22        3.3050494725       -3.2449635750        4.7481400738
C           1.9944328104       -5.1086639897       -0.2372546309
O           0.9382545145       -5.3173660306       -0.8466727856
N           3.1653025900       -5.6123873489       -0.6508014711
H           3.9863434644       -5.4083883389       -0.0949376501
CH3         3.3439868256       -6.4374196187       -1.8473263043
HH31        3.0288308916       -5.8850316847       -2.7350842802
HH32        4.3943891228       -6.7134415366       -1.9591559520
HH33        2.7472768648       -7.3485721346       -1.7678440660
           72
Energy of minimum      2=     -343.2024354409 first found at step      547
HH31       -2.9762496914        5.5817616036        2.8385324902
CH3        -3.1323604944        4.8158926061        2.0797777027
HH32       -4.1522646022        4.4389150909        2.1454024845
HH33       -2.9658284144        5.2421676870        1.0912683288
C          -2.1639505938        3.6757150097        2.3007881005
O          -1.3696033962        3.7173310614        3.2415486328
N          -2.2379486414        2.6551719893        1.4415157040
H          -2.9255159307        2.7343275211        0.7023566548
CA         -1.3781229075        1.4513081911        1.4378985437
HA         -0.4450912208        1.6737551282        1.9590100673
CB         -2.0943663094        0.2810272974        2.1498276562
HB2        -3.0455907063        0.0974002750        1.6468089820
HB3        -1.4915287231       -0.6228352301        2.0442347060
CG         -2.3755973361        0.4882020914        3.6489449619
HG2        -2.9874641591        1.3788828240        3.7906219930
HG3        -2.9481862961       -0.3680502250        4.0079470002
CD         -1.0942388599        0.5995302704        4.4886669551
HD2        -0.4952871731        1.4456712952        4.1519951807
HD3        -0.5010783769       -0.3048941595        4.3398331486
NE         -1.3980178380        0.7377603299        5.9272316570
HE         -1.4305142154       -0.1150210483        6.4669822347
CZ         -1.6172708474        1.8563981319        6.5991895317
NH1        -1.6089958878        3.0332015294        6.0359218486
HH11       -1.7783403950        3.8620487264        6.5826791128
HH12       -1.4400718236        3.1137823418        5.0388309856
NH2        -1.8558775950        1.8118103558        7.8797856032
HH21       -2.0237841349        2.6614568309        8.3963034253
HH22       -1.8725825657        0.9247423803        8.3610482539
C          -0.9852424245        1.0408868790        0.0098651906
O          -1.6844709044        1.3682226474       -0.9555126455
N           0.1246449460        0.3041619596       -0.1200489320
H           0.6177740973        0.0643349230        0.7288935680
CA          0.6390634009       -0.2354991910       -1.3968037060
HA          0.5789024873        0.5489183994       -2.1550971616
CB          2.1185321813       -0.6389754639       -1.2453364422
HB2         2.2153235144       -1.3686285816       -0.4389458565
HB3         2.4524807913       -1.1103147530       -2.1716436539
CG          3.0304929076        0.5657489392       -0.9599416427
HG2         2.7425760727        1.0293790499       -0.0154295157
HG3         2.9170406355        1.2981106090       -1.7608614137
CD          4.5011310538        0.1358199009       -0.8754164745
HD2         4.6179906491       -0.5955930227       -0.0734513356
HD3         4.7994400524       -0.3205311749       -1.8212089453
CE          5.3904871723        1.3526555898       -0.5920895228
HE2         5.2487422320        2.0866076315       -1.3907809204
HE3         5.0708371919        1.8120508094        0.3478293711
NZ          6.8256764536        0.9733536407       -0.5052561315
HZ1         7.1513558760        0.5604501024       -1.3694800152
HZ2         6.9870333197        0.3062567428        0.2379600099
HZ3         7.4045534759        1.7820344337       -0.3182836071
C          -0.2032183783       -1.4133225300       -1.9128667626
O          -0.8547549966       -2.1168237541       -1.1340731152
N          -0.1671275190       -1.6413102845       -3.2272983900
H           0.4159621700       -1.0391219755       -3.7896597173
CA         -0.8486427929       -2.7617676279       -3.8912091528
HA         -1.8437549373       -2.8721219351       -3.4532366580
CB         -1.0245174206       -2.4395312576       -5.3879111444
HB2        -1.5244489907       -3.2725158943       -5.8826891680
HB3        -0.0434155118       -2.3224547832       -5.8499589095
CG         -1.8609654714       -1.1916197259       -5.6302590330
OD1        -3.0318358788       -1.1212661249       -5.2769162644
ND2        -1.2973198227       -0.1639834467       -6.2283487819
HD21       -0.3368576296       -0.2161556261       -6.5392533791
HD22       -1.8518514404        0.6653678719       -6.3914203385
C          -0.1058020752       -4.1003187116       -3.6789581280
O           1.1076006068       -4.1278228842       -3.4395276641
N          -0.8340822004       -5.2192067985       -3.7930839223
H          -1.8196223549       -5.1171119777       -4.0008187981
CH3        -0.3091716434       -6.5776311809       -3.6408125013
HH31        0.1162213393       -6.7063965562       -2.6433039057
HH32       -1.1100599357       -7.3067540343       -3.7786272709
HH33        0.4690288371       -6.7650407386       -4.3836791586
           72
Energy of minimum      3=     -343.0390550662 first found at step      287
HH31       -0.0551586997        6.4986908175        2.9129424682
CH3         0.4811142018        5.5505851134        2.9248328975
HH32        1.5535678122        5.7367202196        2.8821772205
HH33        0.2429414311        5.0080012692        3.8388744560
C           0.0712627551        4.7190810365        1.7301399865
O          -0.7500477295        5.1617147667        0.9256056347
N           0.6509023470        3.5212046432        1.6099773421
H           1.3059504547        3.2600394256        2.3366704142
CA          0.3868538191        2.5247493546        0.5488528575
HA         -0.5967411525        2.7133267128        0.1146084119
CB          1.4615229573        2.6250894662       -0.5576982248
HB2         2.4433700660        2.4786116194       -0.1037174451
HB3         1.3114030322        1.8158123217       -1.2746839327
CG          1.4868021787        3.9502878844       -1.3403689383
HG2         1.6472694186        4.7817697059       -0.6543269289
HG3         2.3319601171        3.9209921732       -2.0293958138
CD          0.2066735024        4.1889437916       -2.1550590545
HD2        -0.6600355157        4.2197276138       -1.4948217617
HD3         0.0695500317        3.3507553538       -2.8410703147
NE          0.2871443690        5.4374770829       -2.9396271559
HE          0.6273592081        5.3557307108       -3.8868304210
CZ         -0.0523438422        6.6556260059       -2.5499964494
NH1        -0.5058765697        6.9153350330       -1.3545611076
HH11       -0.7557887251        7.8564292077       -1.0966932665
HH12       -0.5989177230        6.1661989864       -0.6768031188
NH2         0.0616808703        7.6592828716       -3.3737193343
HH21       -0.1955117556        8.5895276943       -3.0815213288
HH22        0.4076740219        7.5090411461       -4.3099345266
C           0.3403663065        1.0960152444        1.1132900563
O           0.9218225156        0.8149383854        2.1673722107
N          -0.3349169472        0.1885024504        0.3978076418
H          -0.7568079622        0.5056501696       -0.4640584250
CA         -0.4508041699       -1.2451651124        0.7402754169
HA         -0.6618575274       -1.3313286537        1.8089164676
CB         -1.6239613828       -1.8822644214       -0.0294103441
HB2        -1.4740362585       -1.7417458804       -1.1017038330
HB3        -1.6384256244       -2.9547471793        0.1738925426
CG         -2.9844282344       -1.2942515983        0.3802892865
HG2        -3.0098061849       -0.2288795804        0.1472915213
HG3        -3.1208234705       -1.4230908652        1.4552294773
CD         -4.1324281303       -1.9931841366       -0.3602056005
HD2        -3.9997456937       -1.8640905215       -1.4360759421
HD3        -4.1192672122       -3.0589430015       -0.1240860961
CE         -5.4774768540       -1.3919445732        0.0655463889
HE2        -5.5890306340       -1.5083337865        1.1475325440
HE3        -5.4722597153       -0.3213448375       -0.1590712444
NZ         -6.6154253861       -2.0477363878       -0.6317146662
HZ1        -6.6528495707       -3.0377182932       -0.4268464222
HZ2        -6.5448950323       -1.9405699768       -1.6351884645
HZ3        -7.4982385914       -1.6448995205       -0.3446948316
C           0.8566978927       -2.0125054731        0.4860696697
O           1.6710341195       -1.6181588190       -0.3548866934
N           1.0438364793       -3.1253589237        1.1983087171
H           0.3220487553       -3.3902211721        1.8524223728
CA          2.2011151552       -4.0170137261        1.0521437447
HA          3.1056324976       -3.4037718794        1.0472717595
CB          2.2588317378       -4.9404169374        2.2840407513
HB2         2.2812312329       -4.3379924714        3.1925044155
HB3         1.3617565325       -5.5604326544        2.3110279864
CG          3.4928544134       -5.8310772009        2.2883166755
OD1         4.6236817970       -5.3643171693        2.2339678337
ND2         3.3260159653       -7.1350680440        2.3179299337
HD21        2.3966692365       -7.5312689010        2.3611823112
HD22        4.1441014496       -7.7291356816        2.3141961307
C           2.1659968037       -4.8071812410       -0.2776711612
O           1.0912376975       -5.1643916636       -0.7742037559
N           3.3442226567       -5.1038642834       -0.8426421100
H           4.1831049533       -4.7898426825       -0.3702283189
CH3         3.5082817153       -5.8562246015       -2.0876475673
HH31        3.0063554025       -5.3390069952       -2.9080875349
HH32        4.5684489399       -5.9541275882       -2.3294602001
HH33        3.0775594455       -6.8542418426       -1.9827952097
           72
Energy of minimum      4=     -342.9765036680 first found at step      974
HH31       -4.8722641520       -2.1563808687        3.2783782716
CH3        -5.0384369412       -1.1004057201        3.4878974399
HH32       -6.1038072733       -0.8803486159        3.4313588899
HH33       -4.6692064896       -0.8657848805        4.4855163833
C          -4.2919235485       -0.2667095764        2.4708738571
O          -4.9077334496        0.5183455482        1.7482299721
N          -2.9665585483       -0.4294551200        2.4233678565
H          -2.5705258971       -1.1091201953        3.0610093195
CA         -2.0353046166        0.2482508733        1.4948652998
HA         -2.5865245428        0.5868712880        0.6156129496
CB         -1.3813936127        1.4654745051        2.1878342197
HB2        -0.8708830957        1.1203503618        3.0888583957
HB3        -0.6225389075        1.8870903975        1.5260842535
CG         -2.3436715961        2.5993083185        2.5851012917
HG2        -3.1103179608        2.2148706297        3.2575791423
HG3        -1.7730621625        3.3532004255        3.1291230867
CD         -3.0058368458        3.2742584162        1.3745664179
HD2        -2.2221789311        3.6597307058        0.7193826933
HD3        -3.5824670800        2.5452668990        0.8052560949
NE         -3.8756618329        4.3945516444        1.7859156476
HE         -3.4538054536        5.3117738930        1.8049890454
CZ         -5.1553380924        4.3393552213        2.1180838408
NH1        -5.8328688753        3.2246176953        2.1408565440
HH11       -5.3735966734        2.3505656113        1.9077930528
HH12       -6.8069766369        3.2244478307        2.3972259779
NH2        -5.7924841061        5.4291493633        2.4424937472
HH21       -6.7676636499        5.3923311915        2.6965673631
HH22       -5.3116312565        6.3165927068        2.4396884705
C          -0.9519554055       -0.7120926374        0.9789677555
O          -0.6393869484       -1.7172690002        1.6271265661
N          -0.3641451064       -0.3890146869       -0.1793090489
H          -0.6682174931        0.4655116549       -0.6250900498
CA          0.7330585336       -1.1500508501       -0.8142429296
HA          0.4922748070       -2.2146841097       -0.7637398185
CB          0.8593515449       -0.7607146744       -2.2999041354
HB2         1.0247126378        0.3154638791       -2.3807460916
HB3         1.7256551556       -1.2704220218       -2.7259109997
CG         -0.3823359105       -1.1523452831       -3.1180202171
HG2        -1.2560083590       -0.6215346280       -2.7373810681
HG3        -0.5517730630       -2.2257923524       -3.0195208084
CD         -0.1966489813       -0.8060186998       -4.6013714599
HD2        -0.0291582511        0.2679160702       -4.7032412413
HD3         0.6709171537       -1.3413845632       -4.9918618479
CE         -1.4451506645       -1.2071576895       -5.3965023063
HE2        -1.6145187661       -2.2803707405       -5.2691712346
HE3        -2.3102004139       -0.6787396378       -4.9852529639
NZ         -1.2997266057       -0.8880104859       -6.8415493109
HZ1        -0.5150486971       -1.3782041378       -7.2507306799
HZ2        -2.1276628309       -1.1560593501       -7.3579669219
HZ3        -1.1579226726        0.1028090423       -6.9884718631
C           2.0712098641       -0.9658770260       -0.0804853914
O           2.2961569666        0.0502548001        0.5848184743
N           2.9697271213       -1.9420838073       -0.2239353721
H           2.7160151700       -2.7312344455       -0.8001365938
CA          4.3215734119       -1.9152021359        0.3485079057
HA          4.2405616983       -1.6188185896        1.3969267696
CB          4.8980619432       -3.3436914345        0.2874106066
HB2         4.9930701261       -3.6532932219       -0.7541619291
HB3         4.2138370451       -4.0298619857        0.7876147302
CG          6.2589491127       -3.4675919400        0.9558251543
OD1         7.2739415675       -3.7072063913        0.3145931983
ND2         6.3381151595       -3.2700656620        2.2543024155
HD21        5.5028648278       -3.1127351362        2.8019136930
HD22        7.2409969292       -3.3569320407        2.7016965495
C           5.2337112330       -0.8854467988       -0.3609110471
O           5.1079793353       -0.6545077058       -1.5693688127
N           6.1702988681       -0.2827733023        0.3845640800
H           6.2210240841       -0.5281039196        1.3654525288
CH3         7.1303370772        0.7019673815       -0.1175040019
HH31        7.7769895707        1.0426473046        0.6935439553
HH32        7.7503659336        0.2571828489       -0.8987204968
HH33        6.6027655188        1.5633395606       -0.5325652652
           72
Energy of minimum      5=     -342.8967887076 first found at step       36
HH31       -6.3532788390       -3.9035565951        3.3088929214
CH3        -5.9075532601       -3.0906329196        2.7369442703
HH32       -6.4071528902       -3.0060800526        1.7726746486
HH33       -6.0165936169       -2.1558001800        3.2853547758
C          -4.4370782616       -3.3703037821        2.5141120357
O          -3.9313238183       -4.4003920473        2.9636830410
N          -3.7554051791       -2.4521016557        1.8216747396
H          -4.2729880183       -1.6402878226        1.5080002220
CA         -2.3177830573       -2.5145864684        1.4861083950
HA         -1.8099793198       -3.1390007742        2.2248757109
CB         -2.1608288822       -3.1612876531        0.0925243759
HB2        -2.8274343614       -4.0230026146        0.0216814444
HB3        -2.4651553067       -2.4408377337       -0.6688923350
CG         -0.7310320560       -3.6540837408       -0.1952071483
HG2        -0.0089226742       -2.8579706219       -0.0269605302
HG3        -0.5017691352       -4.4733177065        0.4875267857
CD         -0.5731065465       -4.1567237972       -1.6360025964
HD2        -1.3744774451       -4.8663417157       -1.8526879372
HD3         0.3822513229       -4.6797079435       -1.7146941278
NE         -0.5918276146       -3.0466487251       -2.6120494190
HE         -0.5179687710       -2.1064469505       -2.2501059698
CZ         -0.6518373779       -3.1516787663       -3.9278399630
NH1        -0.7071993498       -4.3043090706       -4.5372282764
HH11       -0.7510040453       -4.3504819173       -5.5433879623
HH12       -0.6969537228       -5.1514701929       -3.9915677993
NH2        -0.6553829440       -2.0786906670       -4.6641063083
HH21       -0.7006432980       -2.1444959750       -5.6685659330
HH22       -0.6219832508       -1.1695703780       -4.2106469343
C          -1.6746102180       -1.1192824747        1.5239409556
O          -2.3162241562       -0.1305565653        1.1552003721
N          -0.3980765445       -1.0384847440        1.9183891294
H           0.0491491632       -1.8950904362        2.2160078388
CA          0.4337025483        0.1775173460        1.8148257347
HA         -0.1681490424        1.0284542504        2.1408894207
CB          1.6403193347        0.0428228864        2.7673807568
HB2         1.2686241656       -0.1285974234        3.7793867287
HB3         2.2188578840       -0.8363423340        2.4773317428
CG          2.5989989542        1.2478310509        2.8040519705
HG2         3.0329981713        1.3906062651        1.8141697487
HG3         3.4099709256        1.0080583286        3.4934110799
CD          1.9316809798        2.5537078877        3.2715726689
HD2         1.1924696925        2.8815546384        2.5409010824
HD3         1.4143105272        2.3641110234        4.2137969626
CE          2.9391903786        3.6907680848        3.5053544535
HE2         2.3916564459        4.5548360962        3.8931012464
HE3         3.6523783401        3.3804150856        4.2746943194
NZ          3.6677314108        4.0833852214        2.2673332328
HZ1         3.0291124854        4.2930299903        1.5037707448
HZ2         4.2349544692        4.9066747351        2.4279107011
HZ3         4.2891996412        3.3487996217        1.9545835312
C           0.8572958114        0.4266342477        0.3577027126
O           1.2644375310       -0.5043062163       -0.3410029775
N           0.7825102139        1.6827953427       -0.0857613967
H           0.4394008444        2.3849978695        0.5538167474
CA          1.1896525495        2.1441049849       -1.4215743757
HA          1.7338449644        1.3481693984       -1.9353991128
CB         -0.0702272173        2.4739938330       -2.2481518707
HB2        -0.6148598950        3.2850097801       -1.7629222565
HB3         0.2233883419        2.8213041240       -3.2388847376
CG         -0.9950355730        1.2802669193       -2.4381579821
OD1        -0.6391547753        0.2731035202       -3.0384118818
ND2        -2.2079532237        1.3415937126       -1.9359207232
HD21       -2.8225357001        0.5487426408       -2.0480137404
HD22       -2.5083034036        2.1610930259       -1.4272813914
C           2.1482210946        3.3515284267       -1.3277918478
O           2.2530302226        4.0002222015       -0.2790293853
N           2.8500193422        3.6583114000       -2.4261840921
H           2.7100710765        3.0831779815       -3.2475439376
CH3         3.8003004485        4.7678753265       -2.5277971872
HH31        4.6287313332        4.6181848636       -1.8323301114
HH32        4.1992363370        4.8277603266       -3.5423657416
HH33        3.3040958394        5.7110262237       -2.2891092582
           72
Energy of minimum      6=     -342.8388361565 first found at step      115
HH31       -8.2227916045       -0.6754469086        0.7500373141
CH3        -7.4341691289       -0.5877269019        0.0036965600
HH32       -7.6078102200       -1.3057541640       -0.7968463712
HH33       -7.4314590210        0.4208673446       -0.4077577377
C          -6.0922910582       -0.8694506555        0.6441402869
O          -6.0284963249       -1.1449864345        1.8437087401
N          -5.0243744510       -0.7982431003       -0.1569933347
H          -5.1965347222       -0.5570095954       -1.1252370094
CA         -3.6237053684       -1.0354667146        0.2473831173
HA         -3.5305335138       -0.8561770728        1.3209911783
CB         -3.2724273400       -2.5136467084       -0.0281540415
HB2        -3.9518108313       -3.1454083057        0.5472125274
HB3        -3.4266571157       -2.7269942642       -1.0878313473
CG         -1.8266205459       -2.8836545582        0.3432648377
HG2        -1.1355924079       -2.3284314253       -0.2921570461
HG3        -1.6390791589       -2.6236108189        1.3861720582
CD         -1.5663774212       -4.3805929168        0.1457295291
HD2        -1.8536500814       -4.6610928954       -0.8699992451
HD3        -2.1791072254       -4.9416112123        0.8546448890
NE         -0.1400176292       -4.6941256308        0.3502307846
HE          0.4987729451       -3.9101939182        0.4362863941
CZ          0.4182918290       -5.8893446321        0.3980065011
NH1        -0.2723114720       -6.9905619499        0.2833316061
HH11       -1.2696410491       -6.9350419926        0.1493120158
HH12        0.1845085459       -7.8884515117        0.3231987307
NH2         1.7059560265       -5.9939723267        0.5626832921
HH21        2.1450011889       -6.9008839353        0.5991605050
HH22        2.2643143149       -5.1562088933        0.6418725988
C          -2.6576330624       -0.0760493324       -0.4646222884
O          -2.8155130473        0.1961302027       -1.6592048540
N          -1.6335533478        0.3895055287        0.2615618906
H          -1.6100846517        0.1243327245        1.2380049378
CA         -0.4913681655        1.1736956524       -0.2493412345
HA         -0.3184519749        0.9037503473       -1.2939497101
CB         -0.8411627892        2.6743133825       -0.1853006739
HB2        -1.7919539500        2.8333937701       -0.6974047748
HB3        -0.9621388207        2.9748251074        0.8573161314
CG          0.2202747818        3.5658574791       -0.8503507749
HG2         0.3690144436        3.2389473634       -1.8807510977
HG3         1.1638748688        3.4773928314       -0.3105549994
CD         -0.2148387759        5.0373251724       -0.8469985456
HD2        -1.1542315789        5.1379542918       -1.3940256780
HD3        -0.3642462206        5.3674416724        0.1828258741
CE          0.8596340791        5.9061696839       -1.5124389888
HE2         1.8002397012        5.7835552750       -0.9674815564
HE3         1.0150248339        5.5526758048       -2.5359971296
NZ          0.4700693262        7.3411944704       -1.5288276071
HZ1         0.3357022861        7.6982485866       -0.5918301919
HZ2         1.1842072352        7.9066966948       -1.9696254928
HZ3        -0.3899115948        7.4844871281       -2.0420675842
C           0.7878666584        0.8496257823        0.5376271951
O           0.7474330933        0.7280806602        1.7643949841
N           1.9158259435        0.7327188172       -0.1652876646
H           1.8546376110        0.8679818432       -1.1650576174
CA          3.2593079945        0.5027809389        0.3886223452
HA          3.2731871596        0.7853024940        1.4438497586
CB          3.6160833192       -0.9950534321        0.2646510501
HB2         3.5502822785       -1.2967506606       -0.7813937698
HB3         4.6462577342       -1.1453259016        0.5889902457
CG          2.7340394890       -1.9171156088        1.0929895634
OD1         1.9520816871       -2.7055683347        0.5755859510
ND2         2.8224903429       -1.8581706686        2.4037817540
HD21        3.4666672680       -1.2182376236        2.8460134998
HD22        2.2285654655       -2.4585189240        2.9577461018
C           4.3074409456        1.3819034745       -0.3303422819
O           4.1009517533        1.8150345650       -1.4704004884
N           5.4461162320        1.6315858954        0.3303618427
H           5.5478325061        1.2365797291        1.2568873502
CH3         6.5560057100        2.4322350264       -0.1909770804
HH31        6.2165730098        3.4463710266       -0.4121088136
HH32        7.3601765253        2.4832191935        0.5457490859
HH33        6.9458365372        1.9826999696       -1.1067059968
           72
Energy of minimum      7=     -342.7390095746 first found at step      975
HH31       -4.4156080275       -3.9554529514        2.0488695779
CH3        -4.9175948062       -3.0477489203        2.3815523170
HH32       -5.9836379587       -3.1218177356        2.1701278648
HH33       -4.7653843241       -2.9205239838        3.4526584166
C          -4.3351423232       -1.8591724025        1.6503176877
O          -5.0626345006       -1.1477212820        0.9558077081
N          -3.0275443913       -1.6394757542        1.8153955629
H          -2.5288010163       -2.2953740955        2.4039776014
CA         -2.2346251051       -0.5643744627        1.1797392054
HA         -2.7465887095       -0.2249118322        0.2773837566
CB         -2.0712794475        0.6256352009        2.1526857520
HB2        -1.5984998742        0.2646083501        3.0679544276
HB3        -1.3977333474        1.3601730447        1.7073512918
CG         -3.3727807379        1.3515141835        2.5381134039
HG2        -4.0662573428        0.6477450583        2.9980747127
HG3        -3.1295889634        2.1115364027        3.2818420391
CD         -4.0492527230        2.0419897083        1.3443651507
HD2        -3.3421882184        2.7480140482        0.9044061629
HD3        -4.3024452147        1.3086999655        0.5787114448